 Gaussian 09, Revision C.01,
 Gaussian 09:  EM64M-G09RevC.01 23-Sep-2011

 --------------
 #p td hf/3-21g
 --------------

 (Enter /Applications/g09/l101.exe)
 -----------
 Ethene TDHF
 -----------
 Charge =  0 Multiplicity = 1

                         Standard orientation:
 ---------------------------------------------------------------------
 Center     Atomic      Atomic             Coordinates (Angstroms)
 Number     Number       Type             X           Y           Z
 ---------------------------------------------------------------------
      1          6           0       -0.662958    0.000000   -0.000001
      2          6           0        0.662958    0.000000   -0.000001
      3          1           0       -1.256543   -0.924038   -0.000001
      4          1           0       -1.256574    0.924014    0.000021
      5          1           0        1.256543    0.924038    0.000018
      6          1           0        1.256574   -0.924014   -0.000027
 ---------------------------------------------------------------------

 SCF Done:  E(RHF) =  -77.5989873312     A.U. after    8 cycles

 Excitation energies and oscillator strengths:

 Excited State   1:      Singlet-A      8.4959 eV  145.93 nm  f=0.4711  <S**2>=0.000
       8 ->  9         0.69997
 This state for optimization and/or second-order correction.
 Total Energy, E(TD-HF/TD-KS) =  -77.2867677183
 Copying the excited state density for this state as the 1-particle RhoCI density.

 Excited State   2:      Singlet-A      9.4081 eV  131.78 nm  f=0.0000  <S**2>=0.000
       7 ->  9         0.69611
       8 -> 11         0.11445

 Excited State   3:      Singlet-A     10.5703 eV  117.29 nm  f=0.0000  <S**2>=0.000
       7 ->  9        -0.11484
       8 -> 11         0.69626

 The electronic state is 1-A.
 Alpha  occ. eigenvalues --  -11.17482 -11.17474  -1.03110  -0.78272  -0.63449
 Alpha  occ. eigenvalues --   -0.58953  -0.49106  -0.37821
 Alpha virt. eigenvalues --    0.18317   0.29452   0.30286   0.33149   0.43534
 Alpha virt. eigenvalues --    0.54418   0.88360   0.92981   0.99012   1.07591
 Alpha virt. eigenvalues --    1.10641   1.12774   1.30196   1.33777   1.38846

 Mulliken atomic charges:
              1
     1  C   -0.419885
     2  C   -0.419885
     3  H    0.209941
     4  H    0.209945
     5  H    0.209941
     6  H    0.209945
 Sum of Mulliken atomic charges =   0.00000

 Dipole moment (field-independent basis, Debye):
    X=              0.0000    Y=              0.0000    Z=              0.0000  Tot=              0.0000
 Quadrupole moment (field-independent basis, Debye-Ang):
   XX=            -12.0173   YY=            -12.4333   ZZ=            -15.7806
   XY=             -0.0001   XZ=              0.0000   YZ=              0.0001

 Normal termination of Gaussian 09 at Fri Dec  7 12:12:27 2012.
